                         Program Version 6.0.0  -   RELEASE  -
|  1> !UKS wB97X-D4 EPR-III TightSCF
|  2>
|  3> # FAD Opt hydrogen position
|  4>
|  5> %pal
|  6>    nprocs 24
|  7> end
|  8>
|  9> *xyz -1 2
| 10> N       -1.45159361       2.45238364       0.01906357
| 11> C       -0.80144774       3.64659730       0.01396755
| 12> O       -1.36518524       4.73902957       0.04067704
| 13> N        0.59294246       3.61861763      -0.02934136
| 14> C        1.41560437       2.49990652      -0.04437119
| 15> O        2.63346151       2.63727160      -0.07261065
| 16> C        0.68048322       1.24464422      -0.02092172
| 17> N        1.37212653       0.08163644      -0.00578821
| 18> C        0.64165305      -1.05668452       0.00974375
| 19> C        1.30305107      -2.30080275       0.02314521
| 20> C        0.63124580      -3.50977004       0.01532348
| 21> C        1.39836995      -4.80813489       0.03095098
| 22> C       -0.77072828      -3.50898057      -0.01665175
| 23> C       -1.54510251      -4.80153435      -0.04860552
| 24> C       -1.44855261      -2.28967424      -0.02437109
| 25> C       -0.77648047      -1.07194663       0.01006041
| 26> N       -1.45105585       0.15178061       0.00313814
| 27> C       -0.73127818       1.34012400       0.00279467
| 28> C       -2.87299700       0.19589690       0.29343762
| 29> H        1.05636441       4.51355344      -0.03921697
| 30> H        2.38807356      -2.26911644       0.03644886
| 31> H        2.47353474      -4.62019101       0.05547682
| 32> H        1.18256497      -5.41515696      -0.85513893
| 33> H        1.14249709      -5.41748818       0.90470964
| 34> H       -1.28601393      -5.40942258      -0.92285369
| 35> H       -2.62008555      -4.61027867      -0.08283568
| 36> H       -1.34393859      -5.41729204       0.83551958
| 37> H       -2.53080205      -2.30702231      -0.07653873
| 38> H       -3.14012904      -0.62872267       0.95539417
| 39> H       -3.09069207       1.14799774       0.77149080
| 40> H       -3.47484033       0.14944241      -0.62089873
| 41> *
| 42>
| 43> %EPRNMR
| 44>     GTENSOR   TRUE
| 45>     NUCLEI    = ALL N {AISO, ADIP, AORB}
| 46>     NUCLEI    = ALL H {AISO, ADIP, AORB}
| 47> END
| 48>
| 49>                          ****END OF INPUT****

CARTESIAN COORDINATES (ANGSTROEM)
---------------------------------
  N     -1.451594    2.452384    0.019064
  C     -0.801448    3.646597    0.013968
  O     -1.365185    4.739030    0.040677
  N      0.592942    3.618618   -0.029341
  C      1.415604    2.499907   -0.044371
  O      2.633462    2.637272   -0.072611
  C      0.680483    1.244644   -0.020922
  N      1.372127    0.081636   -0.005788
  C      0.641653   -1.056685    0.009744
  C      1.303051   -2.300803    0.023145
  C      0.631246   -3.509770    0.015323
  C      1.398370   -4.808135    0.030951
  C     -0.770728   -3.508981   -0.016652
  C     -1.545103   -4.801534   -0.048606
  C     -1.448553   -2.289674   -0.024371
  C     -0.776480   -1.071947    0.010060
  N     -1.451056    0.151781    0.003138
  C     -0.731278    1.340124    0.002795
  C     -2.872997    0.195897    0.293438
  H      1.056364    4.513553   -0.039217
  H      2.388074   -2.269116    0.036449
  H      2.473535   -4.620191    0.055477
  H      1.182565   -5.415157   -0.855139
  H      1.142497   -5.417488    0.904710
  H     -1.286014   -5.409423   -0.922854
  H     -2.620086   -4.610279   -0.082836
  H     -1.343939   -5.417292    0.835520
  H     -2.530802   -2.307022   -0.076539
  H     -3.140129   -0.628723    0.955394
  H     -3.090692    1.147998    0.771491
  H     -3.474840    0.149442   -0.620899

 Total Charge           Charge          ....   -1
 Multiplicity           Mult            ....    2
 Number of Electrons    NEL             ....  135
 Basis Dimension        Dim             ....  892

ORBITAL ENERGIES
----------------
                 SPIN UP ORBITALS
  NO   OCC          E(Eh)            E(eV)
   0   1.0000     -19.038025      -518.0510
   1   1.0000     -19.030083      -517.8349
   2   1.0000     -14.345799      -390.3690
   3   1.0000     -14.308459      -389.3530
   4   1.0000     -14.269013      -388.2796
   5   1.0000     -14.250479      -387.7752
   6   1.0000     -10.255803      -279.0746
   7   1.0000     -10.239096      -278.6200
   8   1.0000     -10.234454      -278.4936
   9   1.0000     -10.208620      -277.7907
  10   1.0000     -10.196085      -277.4496
  11   1.0000     -10.187926      -277.2276
  12   1.0000     -10.185367      -277.1579
  13   1.0000     -10.181944      -277.0648
  14   1.0000     -10.178081      -276.9597
  15   1.0000     -10.175125      -276.8792
  16   1.0000     -10.167552      -276.6732
  17   1.0000     -10.164446      -276.5886
  18   1.0000     -10.157433      -276.3978
  19   1.0000      -1.050552       -28.5870
  20   1.0000      -1.020761       -27.7763
  21   1.0000      -1.015569       -27.6350
  22   1.0000      -0.933595       -25.4044
  23   1.0000      -0.927774       -25.2460
  24   1.0000      -0.893006       -24.2999
  25   1.0000      -0.877562       -23.8797
  26   1.0000      -0.803458       -21.8632
  27   1.0000      -0.798243       -21.7213
  28   1.0000      -0.756809       -20.5938
  29   1.0000      -0.734179       -19.9780
  30   1.0000      -0.726242       -19.7620
  31   1.0000      -0.678079       -18.4515
  32   1.0000      -0.648983       -17.6597
  33   1.0000      -0.616504       -16.7759
  34   1.0000      -0.603573       -16.4240
  35   1.0000      -0.575005       -15.6467
  36   1.0000      -0.548877       -14.9357
  37   1.0000      -0.530931       -14.4474
  38   1.0000      -0.503245       -13.6940
  39   1.0000      -0.488841       -13.3020
  40   1.0000      -0.486592       -13.2408
  41   1.0000      -0.466863       -12.7040
  42   1.0000      -0.462646       -12.5892
  43   1.0000      -0.450796       -12.2668
  44   1.0000      -0.442916       -12.0524
  45   1.0000      -0.438857       -11.9419
  46   1.0000      -0.427454       -11.6316
  47   1.0000      -0.423893       -11.5347
  48   1.0000      -0.411973       -11.2104
  49   1.0000      -0.402931       -10.9643
  50   1.0000      -0.402201       -10.9444
  51   1.0000      -0.398661       -10.8481
  52   1.0000      -0.391159       -10.6440
  53   1.0000      -0.386680       -10.5221
  54   1.0000      -0.369694       -10.0599
  55   1.0000      -0.351592        -9.5673
  56   1.0000      -0.347997        -9.4695
  57   1.0000      -0.343709        -9.3528
  58   1.0000      -0.318226        -8.6594
  59   1.0000      -0.274805        -7.4778
  60   1.0000      -0.271818        -7.3965
  61   1.0000      -0.250759        -6.8235
  62   1.0000      -0.241652        -6.5757
  63   1.0000      -0.225685        -6.1412
  64   1.0000      -0.225652        -6.1403
  65   1.0000      -0.221045        -6.0149
  66   1.0000      -0.188168        -5.1203
  67   1.0000      -0.098963        -2.6929
  68   0.0000       0.098193         2.6720
  69   0.0000       0.107650         2.9293
  70   0.0000       0.120802         3.2872
  71   0.0000       0.125388         3.4120
  72   0.0000       0.135340         3.6828

                 SPIN DOWN ORBITALS
  NO   OCC          E(Eh)            E(eV)
   0   1.0000     -19.036651      -518.0136
   1   1.0000     -19.029207      -517.8111
   2   1.0000     -14.343567      -390.3083
   3   1.0000     -14.308588      -389.3565
   4   1.0000     -14.261993      -388.0886
   5   1.0000     -14.250296      -387.7703
   6   1.0000     -10.255654      -279.0705
   7   1.0000     -10.238858      -278.6135
   8   1.0000     -10.233977      -278.4807
   9   1.0000     -10.207343      -277.7559
  10   1.0000     -10.196177      -277.4521
  11   1.0000     -10.189643      -277.2743
  12   1.0000     -10.185517      -277.1620
  13   1.0000     -10.181882      -277.0631
  14   1.0000     -10.176367      -276.9130
  15   1.0000     -10.175676      -276.8942
  16   1.0000     -10.168342      -276.6947
  17   1.0000     -10.163168      -276.5539
  18   1.0000     -10.155410      -276.3427
  19   1.0000      -1.048766       -28.5384
  20   1.0000      -1.018454       -27.7135
  21   1.0000      -1.011590       -27.5268
  22   1.0000      -0.929939       -25.3049
  23   1.0000      -0.919569       -25.0228
  24   1.0000      -0.890026       -24.2188
  25   1.0000      -0.875664       -23.8280
  26   1.0000      -0.802100       -21.8263
  27   1.0000      -0.795759       -21.6537
  28   1.0000      -0.752772       -20.4840
  29   1.0000      -0.732939       -19.9443
  30   1.0000      -0.722568       -19.6621
  31   1.0000      -0.672616       -18.3028
  32   1.0000      -0.648108       -17.6359
  33   1.0000      -0.614670       -16.7260
  34   1.0000      -0.600634       -16.3441
  35   1.0000      -0.573343       -15.6015
  36   1.0000      -0.546810       -14.8795
  37   1.0000      -0.529164       -14.3993
  38   1.0000      -0.501583       -13.6488
  39   1.0000      -0.487542       -13.2667
  40   1.0000      -0.479847       -13.0573
  41   1.0000      -0.465349       -12.6628
  42   1.0000      -0.460318       -12.5259
  43   1.0000      -0.449764       -12.2387
  44   1.0000      -0.439660       -11.9638
  45   1.0000      -0.435437       -11.8488
  46   1.0000      -0.424932       -11.5630
  47   1.0000      -0.423314       -11.5190
  48   1.0000      -0.411476       -11.1968
  49   1.0000      -0.401621       -10.9287
  50   1.0000      -0.398609       -10.8467
  51   1.0000      -0.392441       -10.6789
  52   1.0000      -0.389628       -10.6023
  53   1.0000      -0.385379       -10.4867
  54   1.0000      -0.362323        -9.8593
  55   1.0000      -0.349624        -9.5137
  56   1.0000      -0.346829        -9.4377
  57   1.0000      -0.334957        -9.1146
  58   1.0000      -0.291155        -7.9227
  59   1.0000      -0.270397        -7.3579
  60   1.0000      -0.259758        -7.0684
  61   1.0000      -0.249119        -6.7789
  62   1.0000      -0.234561        -6.3827
  63   1.0000      -0.219723        -5.9790
  64   1.0000      -0.219218        -5.9652
  65   1.0000      -0.206834        -5.6282
  66   1.0000      -0.171172        -4.6578
  67   0.0000       0.098495         2.6802
  68   0.0000       0.107804         2.9335
  69   0.0000       0.114229         3.1083
  70   0.0000       0.121271         3.2999
  71   0.0000       0.128664         3.5011

MULLIKEN ATOMIC CHARGES AND SPIN POPULATIONS
--------------------------------------------
   0 N :   -0.200556    0.011171
   1 C :    0.259483    0.012706
   2 O :   -0.562355    0.038910
   3 N :   -0.195578   -0.010905
   4 C :   -0.068756    0.043981
   5 O :   -0.492503    0.065344
   6 C :    0.361151    0.113481
   7 N :   -0.183464    0.382798
   8 C :    0.219641   -0.107534
   9 C :    0.254915    0.173706
  10 C :   -0.137199   -0.072753
  11 C :   -0.379048    0.006832
  12 C :   -0.453948    0.162382
  13 C :   -0.329453   -0.007308
  14 C :    0.155817   -0.069692
  15 C :    0.115226    0.116327
  16 N :    0.216617    0.075897
  17 C :   -0.485398    0.048546
  18 C :   -0.347191   -0.005051
  19 H :    0.259262    0.000814
  20 H :    0.088984   -0.007974
  21 H :    0.096685   -0.000051
  22 H :    0.082919   -0.003332
  23 H :    0.081845   -0.003272
  24 H :    0.086005    0.008143
  25 H :    0.083852    0.000059
  26 H :    0.085861    0.008751
  27 H :    0.023305    0.002894
  28 H :    0.092442    0.006981
  29 H :    0.164936    0.001996
  30 H :    0.106502    0.006153
Sum of atomic charges         :   -1.0000000

LOEWDIN ATOMIC CHARGES AND SPIN POPULATIONS
-------------------------------------------
   0 N :    0.022202    0.012297
   1 C :   -0.457021    0.013767
   2 O :   -0.058853    0.033084
   3 N :    0.141381   -0.002067
   4 C :   -0.345787    0.045049
   5 O :   -0.022290    0.055215
   6 C :   -0.213711    0.128513
   7 N :    0.107578    0.325354
   8 C :   -0.196348   -0.028989
   9 C :   -0.078354    0.105128
  10 C :   -0.168537   -0.027432
  11 C :   -0.209903   -0.004007
  12 C :   -0.166931    0.117767
  13 C :   -0.213625    0.010634
  14 C :   -0.116589   -0.020503
  15 C :   -0.130116    0.065446
  16 N :    0.137068    0.087988
  17 C :   -0.209625    0.060874
  18 C :   -0.192582    0.007784
  19 H :    0.142226   -0.000046
  20 H :    0.136363    0.004775
  21 H :    0.107683    0.000006
  22 H :    0.104738   -0.002098
  23 H :    0.104796   -0.002074
  24 H :    0.105044    0.004872
  25 H :    0.105135   -0.000101
  26 H :    0.105026    0.005131
  27 H :    0.122802   -0.002218
  28 H :    0.106461    0.001970
  29 H :    0.122643    0.000561
  30 H :    0.109125    0.003322

  Mayer bond orders larger than 0.100000
B(  0-N ,  1-C ) :   1.2175 B(  0-N , 15-C ) :   0.1286 B(  0-N , 16-N ) :  -0.1544
B(  0-N , 17-C ) :   1.4410 B(  1-C ,  2-O ) :   1.7599 B(  1-C ,  3-N ) :   1.1037
B(  2-O , 17-C ) :   0.1012 B(  3-N ,  4-C ) :   1.1482 B(  3-N ,  6-C ) :  -0.2104
B(  3-N , 17-C ) :   0.1254 B(  3-N , 19-H ) :   0.9078 B(  4-C ,  5-O ) :   2.0737
B(  4-C ,  6-C ) :   0.8180 B(  4-C ,  7-N ) :  -0.2182 B(  4-C , 15-C ) :  -0.1827
B(  4-C , 16-N ) :   0.1046 B(  4-C , 17-C ) :   0.4158 B(  5-O ,  6-C ) :  -0.1116
B(  6-C ,  7-N ) :   1.4933 B(  6-C , 15-C ) :   0.1997 B(  6-C , 16-N ) :  -0.1165
B(  6-C , 17-C ) :   1.1424 B(  7-N ,  8-C ) :   1.4358 B(  8-C ,  9-C ) :   1.2873
B(  8-C , 15-C ) :   1.1775 B(  8-C , 16-N ) :  -0.1387 B(  9-C , 10-C ) :   1.4160
B(  9-C , 11-C ) :  -0.2024 B(  9-C , 20-H ) :   0.9643 B( 10-C , 11-C ) :   0.8272
B( 10-C , 12-C ) :   1.6624 B( 10-C , 13-C ) :   0.1071 B( 10-C , 14-C ) :  -0.1031
B( 11-C , 12-C ) :   0.1459 B( 11-C , 13-C ) :   0.1772 B( 11-C , 21-H ) :   1.0151
B( 11-C , 22-H ) :   0.9981 B( 11-C , 23-H ) :   0.9966 B( 12-C , 13-C ) :   0.8954
B( 12-C , 14-C ) :   1.5635 B( 13-C , 14-C ) :  -0.1696 B( 13-C , 24-H ) :   0.9776
B( 13-C , 25-H ) :   0.9988 B( 13-C , 26-H ) :   0.9753 B( 14-C , 15-C ) :   1.2133
B( 14-C , 27-H ) :   0.9513 B( 15-C , 16-N ) :   1.0103 B( 15-C , 17-C ) :   0.1683
B( 15-C , 27-H ) :  -0.1328 B( 16-N , 17-C ) :   1.1459 B( 16-N , 18-C ) :   0.9008
B( 18-C , 28-H ) :   1.0215 B( 18-C , 29-H ) :   1.0136 B( 18-C , 30-H ) :   0.9879

Dispersion correction           -0.081284941
FINAL SINGLE POINT ENERGY      -872.873107617318

DIPOLE MOMENT
-------------

Method             : SCF
Type of density    : Electron Density
Multiplicity       :   2
Irrep              :   0
Energy             :  -872.7918226761811411 Eh
Relativity type    :
Basis              : AO
                                X                 Y                 Z
Electronic contribution:      5.801672515      24.352438141      -0.640277697
Nuclear contribution   :     -7.038521195     -28.381971683       0.759724382
                        -----------------------------------------
Total Dipole Moment    :     -1.236848680      -4.029533541       0.119446686
                        -----------------------------------------
Magnitude (a.u.)       :      4.216776343
Magnitude (Debye)      :     10.718193675

Rotational constants in cm-1:             0.030041             0.007600             0.006091
Rotational constants in MHz :           900.603605           227.838735           182.602069

                             ****ORCA TERMINATED NORMALLY****
TOTAL RUN TIME: 0 days 0 hours 14 minutes 50 seconds 387 msec
