                         Program Version 6.0.0  -   RELEASE  -
|  1> !UKS wB97X-D4 EPR-III TightSCF
|  2>
|  3> # TrpC Hyperfine hydrogen position
|  4>
|  5> %pal
|  6>    nprocs 14
|  7> end
|  8>
|  9> *xyz 1 2
| 10>   N      13.181582    -15.333543      6.352197
| 11>   C      13.057393    -15.417009      4.906690
| 12>   C      14.339789    -15.884658      4.223462
| 13>   O      15.412325    -15.903290      4.759524
| 14>   C      12.683308    -14.022670      4.341457
| 15>   C      11.487964    -13.534246      5.072070
| 16>   C      11.526815    -12.748787      6.267458
| 17>   C      10.136671    -13.897399      4.893679
| 18>   N      10.308540    -12.623138      6.762947
| 19>   C       9.392059    -13.324362      5.949308
| 20>   C       9.473547    -14.666448      3.920695
| 21>   C       8.039249    -13.481764      6.082145
| 22>   C       8.104698    -14.836832      4.040058
| 23>   C       7.401941    -14.255680      5.098489
| 24>   O      14.121478    -16.230861      2.945881
| 25>   H      14.968057    -16.494418      2.552238
| 26>   H      14.141516    -15.098952      6.591721
| 27>   H      12.998309    -16.232670      6.780472
| 28>   H      12.257938    -16.116027      4.649135
| 29>   H      12.487714    -14.092550      3.269710
| 30>   H      13.522812    -13.337913      4.489941
| 31>   H      12.389932    -12.304528      6.742645
| 32>   H      10.073294    -12.115691      7.603365
| 33>   H      10.019789    -15.108602      3.095109
| 34>   H       7.476692    -13.041273      6.896863
| 35>   H       7.566903    -15.423319      3.305363
| 36>   H       6.330204    -14.403824      5.165892
| 37> *
| 38>
| 39> %eprnmr
| 40>     Nuclei = all N { aiso, adip, aorb }
| 41>     Nuclei = all H { aiso, adip, aorb }
| 42> end
| 43>
| 44>
| 45>                          ****END OF INPUT****

CARTESIAN COORDINATES (ANGSTROEM)
---------------------------------
  N     13.181582  -15.333543    6.352197
  C     13.057393  -15.417009    4.906690
  C     14.339789  -15.884658    4.223462
  O     15.412325  -15.903290    4.759524
  C     12.683308  -14.022670    4.341457
  C     11.487964  -13.534246    5.072070
  C     11.526815  -12.748787    6.267458
  C     10.136671  -13.897399    4.893679
  N     10.308540  -12.623138    6.762947
  C      9.392059  -13.324362    5.949308
  C      9.473547  -14.666448    3.920695
  C      8.039249  -13.481764    6.082145
  C      8.104698  -14.836832    4.040058
  C      7.401941  -14.255680    5.098489
  O     14.121478  -16.230861    2.945881
  H     14.968057  -16.494418    2.552238
  H     14.141516  -15.098952    6.591721
  H     12.998309  -16.232670    6.780472
  H     12.257938  -16.116027    4.649135
  H     12.487714  -14.092550    3.269710
  H     13.522812  -13.337913    4.489941
  H     12.389932  -12.304528    6.742645
  H     10.073294  -12.115691    7.603365
  H     10.019789  -15.108602    3.095109
  H      7.476692  -13.041273    6.896863
  H      7.566903  -15.423319    3.305363
  H      6.330204  -14.403824    5.165892

 Total Charge           Charge          ....    1
 Multiplicity           Mult            ....    2
 Number of Electrons    NEL             ....  107
 Basis Dimension        Dim             ....  732

ORBITAL ENERGIES
----------------
                 SPIN UP ORBITALS
  NO   OCC          E(Eh)            E(eV)
   0   1.0000     -19.382090      -527.4135
   1   1.0000     -19.324554      -525.8479
   2   1.0000     -14.659921      -398.9167
   3   1.0000     -14.528828      -395.3495
   4   1.0000     -10.526801      -286.4488
   5   1.0000     -10.522829      -286.3407
   6   1.0000     -10.491149      -285.4787
   7   1.0000     -10.487384      -285.3762
   8   1.0000     -10.460062      -284.6328
   9   1.0000     -10.453654      -284.4584
  10   1.0000     -10.450095      -284.3616
  11   1.0000     -10.449179      -284.3366
  12   1.0000     -10.447999      -284.3045
  13   1.0000     -10.436437      -283.9899
  14   1.0000     -10.429825      -283.8100
  15   1.0000      -1.365491       -37.1569
  16   1.0000      -1.322516       -35.9875
  17   1.0000      -1.274654       -34.6851
  18   1.0000      -1.173535       -31.9335
  19   1.0000      -1.160797       -31.5869
  20   1.0000      -1.119335       -30.4587
  21   1.0000      -1.052882       -28.6504
  22   1.0000      -1.044866       -28.4323
  23   1.0000      -1.020790       -27.7771
  24   1.0000      -0.950551       -25.8658
  25   1.0000      -0.928086       -25.2545
  26   1.0000      -0.898041       -24.4369
  27   1.0000      -0.862915       -23.4811
  28   1.0000      -0.843446       -22.9513
  29   1.0000      -0.835622       -22.7384
  30   1.0000      -0.784937       -21.3592
  31   1.0000      -0.774961       -21.0878
  32   1.0000      -0.763706       -20.7815
  33   1.0000      -0.753456       -20.5026
  34   1.0000      -0.733413       -19.9572
  35   1.0000      -0.728918       -19.8349
  36   1.0000      -0.722157       -19.6509
  37   1.0000      -0.714726       -19.4487
  38   1.0000      -0.699101       -19.0235
  39   1.0000      -0.697958       -18.9924
  40   1.0000      -0.671249       -18.2656
  41   1.0000      -0.665588       -18.1116
  42   1.0000      -0.640898       -17.4397
  43   1.0000      -0.637576       -17.3493
  44   1.0000      -0.635001       -17.2792
  45   1.0000      -0.627120       -17.0648
  46   1.0000      -0.613875       -16.7044
  47   1.0000      -0.601710       -16.3734
  48   1.0000      -0.562406       -15.3038
  49   1.0000      -0.552475       -15.0336
  50   1.0000      -0.515793       -14.0354
  51   1.0000      -0.505014       -13.7421
  52   1.0000      -0.493475       -13.4281
  53   1.0000      -0.474162       -12.9026
  54   0.0000      -0.128495        -3.4965
  55   0.0000      -0.079208        -2.1554
  56   0.0000      -0.075793        -2.0624
  57   0.0000      -0.062745        -1.7074
  58   0.0000      -0.058389        -1.5889

                 SPIN DOWN ORBITALS
  NO   OCC          E(Eh)            E(eV)
   0   1.0000     -19.382098      -527.4137
   1   1.0000     -19.324442      -525.8448
   2   1.0000     -14.658030      -398.8653
   3   1.0000     -14.528446      -395.3391
   4   1.0000     -10.526841      -286.4499
   5   1.0000     -10.520325      -286.2726
   6   1.0000     -10.489917      -285.4452
   7   1.0000     -10.482819      -285.2520
   8   1.0000     -10.459584      -284.6198
   9   1.0000     -10.451081      -284.3884
  10   1.0000     -10.449756      -284.3523
  11   1.0000     -10.449326      -284.3406
  12   1.0000     -10.447561      -284.2926
  13   1.0000     -10.436684      -283.9966
  14   1.0000     -10.431104      -283.8448
  15   1.0000      -1.365434       -37.1553
  16   1.0000      -1.315899       -35.8074
  17   1.0000      -1.274489       -34.6806
  18   1.0000      -1.171354       -31.8742
  19   1.0000      -1.157897       -31.5080
  20   1.0000      -1.109986       -30.2043
  21   1.0000      -1.050396       -28.5827
  22   1.0000      -1.041140       -28.3309
  23   1.0000      -1.011760       -27.5314
  24   1.0000      -0.948628       -25.8135
  25   1.0000      -0.925180       -25.1754
  26   1.0000      -0.894534       -24.3415
  27   1.0000      -0.858302       -23.3556
  28   1.0000      -0.841899       -22.9092
  29   1.0000      -0.832672       -22.6581
  30   1.0000      -0.782621       -21.2962
  31   1.0000      -0.772544       -21.0220
  32   1.0000      -0.760906       -20.7053
  33   1.0000      -0.742491       -20.2042
  34   1.0000      -0.727883       -19.8067
  35   1.0000      -0.725843       -19.7512
  36   1.0000      -0.715838       -19.4789
  37   1.0000      -0.713308       -19.4101
  38   1.0000      -0.697725       -18.9861
  39   1.0000      -0.695729       -18.9318
  40   1.0000      -0.669395       -18.2152
  41   1.0000      -0.663141       -18.0450
  42   1.0000      -0.637711       -17.3530
  43   1.0000      -0.633376       -17.2350
  44   1.0000      -0.625121       -17.0104
  45   1.0000      -0.618457       -16.8291
  46   1.0000      -0.612279       -16.6610
  47   1.0000      -0.600340       -16.3361
  48   1.0000      -0.553468       -15.0606
  49   1.0000      -0.529156       -14.3991
  50   1.0000      -0.511229       -13.9112
  51   1.0000      -0.501465       -13.6455
  52   1.0000      -0.491482       -13.3739
  53   0.0000      -0.243322        -6.6211
  54   0.0000      -0.099910        -2.7187
  55   0.0000      -0.078839        -2.1453
  56   0.0000      -0.062531        -1.7016
  57   0.0000      -0.061798        -1.6816

MULLIKEN ATOMIC CHARGES AND SPIN POPULATIONS
--------------------------------------------
   0 N :   -0.607042    0.012435
   1 C :    0.074970    0.025501
   2 C :    0.318264    0.000417
   3 O :   -0.293729    0.005099
   4 C :   -0.348158   -0.009654
   5 C :   -0.191872    0.376826
   6 C :   -0.081691    0.227302
   7 C :    0.241328   -0.079435
   8 N :   -0.158597    0.094268
   9 C :    0.053121    0.063340
  10 C :   -0.276387    0.231209
  11 C :   -0.033033   -0.033185
  12 C :    0.077520   -0.110100
  13 C :    0.073856    0.208360
  14 O :   -0.372254   -0.000820
  15 H :    0.367115   -0.000029
  16 H :    0.289574   -0.000079
  17 H :    0.276159   -0.000007
  18 H :    0.169617   -0.000861
  19 H :    0.202029    0.008336
  20 H :    0.193852    0.001738
  21 H :    0.169203   -0.006853
  22 H :    0.280476   -0.001784
  23 H :    0.139525   -0.009793
  24 H :    0.128748    0.002416
  25 H :    0.148972    0.004469
  26 H :    0.158434   -0.009116
Sum of atomic charges         :    1.0000000

LOEWDIN ATOMIC CHARGES AND SPIN POPULATIONS
-------------------------------------------
   0 N :   -0.011657    0.014668
   1 C :   -0.222551    0.018691
   2 C :   -0.418001    0.000068
   3 O :    0.088810    0.004058
   4 C :   -0.141126    0.019229
   5 C :   -0.023795    0.290710
   6 C :    0.017463    0.212420
   7 C :   -0.110110   -0.016314
   8 N :    0.244319    0.099820
   9 C :   -0.107453    0.067582
  10 C :   -0.008508    0.153855
  11 C :   -0.039903    0.000760
  12 C :   -0.073552   -0.042119
  13 C :   -0.019411    0.150605
  14 O :    0.142801   -0.000165
  15 H :    0.119052   -0.000022
  16 H :    0.110405    0.000703
  17 H :    0.101076    0.001137
  18 H :    0.157119    0.000373
  19 H :    0.151962    0.004038
  20 H :    0.155202    0.001605
  21 H :    0.156974    0.005739
  22 H :    0.159363    0.004850
  23 H :    0.146711    0.005884
  24 H :    0.144790   -0.000968
  25 H :    0.138824   -0.002898
  26 H :    0.141197    0.005689

  Mayer bond orders larger than 0.100000
B(  0-N ,  1-C ) :   0.8872 B(  0-N , 16-H ) :   0.8955 B(  0-N , 17-H ) :   0.9184
B(  1-C ,  2-C ) :   0.9168 B(  1-C ,  4-C ) :   0.8046 B(  1-C , 14-O ) :   0.1049
B(  1-C , 18-H ) :   1.0260 B(  2-C ,  3-O ) :   1.9196 B(  2-C , 14-O ) :   1.0700
B(  4-C ,  5-C ) :   1.0544 B(  4-C ,  6-C ) :  -0.2268 B(  4-C ,  7-C ) :  -0.2773
B(  4-C , 19-H ) :   0.9466 B(  4-C , 20-H ) :   1.0493 B(  5-C ,  6-C ) :   1.3202
B(  5-C ,  7-C ) :   1.3899 B(  5-C ,  8-N ) :   0.1556 B(  5-C ,  9-C ) :   0.2824
B(  5-C , 10-C ) :   0.2292 B(  5-C , 19-H ) :   0.1503 B(  6-C ,  7-C ) :   0.1490
B(  6-C ,  8-N ) :   1.4791 B(  6-C ,  9-C ) :   0.2508 B(  6-C , 21-H ) :   0.9934
B(  7-C ,  9-C ) :   1.2075 B(  7-C , 10-C ) :   0.9450 B(  7-C , 12-C ) :   0.1883
B(  7-C , 19-H ) :  -0.1710 B(  7-C , 23-H ) :  -0.1857 B(  8-N ,  9-C ) :   1.1079
B(  8-N , 11-C ) :  -0.1701 B(  8-N , 22-H ) :   0.8887 B(  9-C , 11-C ) :   1.2872
B(  9-C , 24-H ) :  -0.1125 B( 10-C , 12-C ) :   1.1392 B( 10-C , 13-C ) :   0.1295
B( 10-C , 23-H ) :   1.2229 B( 11-C , 12-C ) :   0.1061 B( 11-C , 13-C ) :   1.1332
B( 11-C , 24-H ) :   1.1147 B( 12-C , 13-C ) :   1.1503 B( 12-C , 23-H ) :  -0.1401
B( 12-C , 25-H ) :   1.0396 B( 13-C , 26-H ) :   1.0046 B( 14-O , 15-H ) :   0.8198

Dispersion correction           -0.057746707
FINAL SINGLE POINT ENERGY      -686.658301259469

DIPOLE MOMENT
-------------

Method             : SCF
Type of density    : Electron Density
Multiplicity       :   2
Irrep              :   0
Energy             :  -686.6005545526310243 Eh
Relativity type    :
Basis              : AO
                                X                 Y                 Z
Electronic contribution:      0.290870887       1.442756772       0.085284725
Nuclear contribution   :     -2.173486153      -0.151130019       0.744229255
                        -----------------------------------------
Total Dipole Moment    :     -1.882615266       1.291626753       0.829513980
                        -----------------------------------------
Magnitude (a.u.)       :      2.429121931
Magnitude (Debye)      :      6.174337265

Rotational constants in cm-1:             0.043503             0.011431             0.009778
Rotational constants in MHz :          1304.194730           342.702870           293.142059

                             ****ORCA TERMINATED NORMALLY****
TOTAL RUN TIME: 0 days 0 hours 8 minutes 38 seconds 407 msec
