                         Program Version 6.0.0  -   RELEASE  -
|  1> !UKS wB97X-D4 EPR-III TightSCF
|  2>
|  3> # Same as TrpC-dihedral-opt but rotated geometry
|  4>
|  5> %pal
|  6>    nprocs 24
|  7> end
|  8>
|  9> *xyz 1 2
| 10> N       13.18525047     -15.30694139       6.34165182
| 11> C       13.05015155     -15.38285425       4.89670705
| 12> C       14.33076846     -15.83599790       4.20048996
| 13> O       15.40768514     -15.84907470       4.72786330
| 14> C       12.66027700     -13.98828379       4.34283110
| 15> C       11.46691846     -13.51393894       5.08586110
| 16> C       11.50899930     -12.73528182       6.28558176
| 17> C       10.11722092     -13.88701382       4.91607705
| 18> N       10.29376083     -12.62248730       6.79151036
| 19> C        9.37648692     -13.32631672       5.98102013
| 20> C        9.45255764     -14.65565904       3.94382434
| 21> C        8.02610342     -13.49550656       6.12369248
| 22> C        8.08613410     -14.83788090       4.07307342
| 23> C        7.38720965     -14.26874487       5.14053330
| 24> O       14.10502622     -16.17639423       2.92264021
| 25> H       14.95052504     -16.43071765       2.52069039
| 26> H       14.14514555     -15.06596884       6.57491517
| 27> H       13.01269935     -16.21005098       6.76598401
| 28> H       12.25433855     -16.08681777       4.64135266
| 29> H       12.45666524     -14.05340577       3.27227777
| 30> H       13.49537730     -13.29760838       4.48871478
| 31> H       12.37227680     -12.28683465       6.75652387
| 32> H       10.06116479     -12.12195716       7.63680029
| 33> H        9.99572077     -15.08845606       3.11127714
| 34> H        7.46655361     -13.06444100       6.94549207
| 35> H        7.54722632     -15.42436502       3.33919178
| 36> H        6.31728120     -14.42600282       5.21558992
| 37> *
| 38>
| 39> %eprnmr
| 40>     Nuclei = all N { aiso, adip, aorb }
| 41>     Nuclei = all H { aiso, adip, aorb }
| 42> end
| 43>
| 44>
| 45>                          ****END OF INPUT****

CARTESIAN COORDINATES (ANGSTROEM)
---------------------------------
  N     13.185250  -15.306941    6.341652
  C     13.050152  -15.382854    4.896707
  C     14.330768  -15.835998    4.200490
  O     15.407685  -15.849075    4.727863
  C     12.660277  -13.988284    4.342831
  C     11.466918  -13.513939    5.085861
  C     11.508999  -12.735282    6.285582
  C     10.117221  -13.887014    4.916077
  N     10.293761  -12.622487    6.791510
  C      9.376487  -13.326317    5.981020
  C      9.452558  -14.655659    3.943824
  C      8.026103  -13.495507    6.123692
  C      8.086134  -14.837881    4.073073
  C      7.387210  -14.268745    5.140533
  O     14.105026  -16.176394    2.922640
  H     14.950525  -16.430718    2.520690
  H     14.145146  -15.065969    6.574915
  H     13.012699  -16.210051    6.765984
  H     12.254339  -16.086818    4.641353
  H     12.456665  -14.053406    3.272278
  H     13.495377  -13.297608    4.488715
  H     12.372277  -12.286835    6.756524
  H     10.061165  -12.121957    7.636800
  H      9.995721  -15.088456    3.111277
  H      7.466554  -13.064441    6.945492
  H      7.547226  -15.424365    3.339192
  H      6.317281  -14.426003    5.215590

 Total Charge           Charge          ....    1
 Multiplicity           Mult            ....    2
 Number of Electrons    NEL             ....  107
 Basis Dimension        Dim             ....  732

ORBITAL ENERGIES
----------------
                 SPIN UP ORBITALS
  NO   OCC          E(Eh)            E(eV)
   0   1.0000     -19.382089      -527.4135
   1   1.0000     -19.324553      -525.8478
   2   1.0000     -14.659922      -398.9168
   3   1.0000     -14.528827      -395.3495
   4   1.0000     -10.526801      -286.4488
   5   1.0000     -10.522829      -286.3407
   6   1.0000     -10.491150      -285.4787
   7   1.0000     -10.487384      -285.3762
   8   1.0000     -10.460061      -284.6327
   9   1.0000     -10.453655      -284.4584
  10   1.0000     -10.450096      -284.3616
  11   1.0000     -10.449179      -284.3366
  12   1.0000     -10.447999      -284.3045
  13   1.0000     -10.436436      -283.9899
  14   1.0000     -10.429825      -283.8100
  15   1.0000      -1.365490       -37.1569
  16   1.0000      -1.322516       -35.9875
  17   1.0000      -1.274653       -34.6851
  18   1.0000      -1.173534       -31.9335
  19   1.0000      -1.160798       -31.5869
  20   1.0000      -1.119335       -30.4587
  21   1.0000      -1.052883       -28.6504
  22   1.0000      -1.044867       -28.4323
  23   1.0000      -1.020790       -27.7771
  24   1.0000      -0.950550       -25.8658
  25   1.0000      -0.928086       -25.2545
  26   1.0000      -0.898041       -24.4369
  27   1.0000      -0.862915       -23.4811
  28   1.0000      -0.843446       -22.9513
  29   1.0000      -0.835621       -22.7384
  30   1.0000      -0.784936       -21.3592
  31   1.0000      -0.774960       -21.0877
  32   1.0000      -0.763706       -20.7815
  33   1.0000      -0.753456       -20.5026
  34   1.0000      -0.733412       -19.9572
  35   1.0000      -0.728918       -19.8349
  36   1.0000      -0.722157       -19.6509
  37   1.0000      -0.714726       -19.4487
  38   1.0000      -0.699101       -19.0235
  39   1.0000      -0.697958       -18.9924
  40   1.0000      -0.671249       -18.2656
  41   1.0000      -0.665588       -18.1116
  42   1.0000      -0.640898       -17.4397
  43   1.0000      -0.637576       -17.3493
  44   1.0000      -0.635001       -17.2793
  45   1.0000      -0.627120       -17.0648
  46   1.0000      -0.613875       -16.7044
  47   1.0000      -0.601710       -16.3734
  48   1.0000      -0.562406       -15.3039
  49   1.0000      -0.552474       -15.0336
  50   1.0000      -0.515792       -14.0354
  51   1.0000      -0.505014       -13.7421
  52   1.0000      -0.493474       -13.4281
  53   1.0000      -0.474162       -12.9026
  54   0.0000      -0.128495        -3.4965
  55   0.0000      -0.079208        -2.1554
  56   0.0000      -0.075794        -2.0625
  57   0.0000      -0.062745        -1.7074
  58   0.0000      -0.058390        -1.5889

                 SPIN DOWN ORBITALS
  NO   OCC          E(Eh)            E(eV)
   0   1.0000     -19.382097      -527.4137
   1   1.0000     -19.324442      -525.8448
   2   1.0000     -14.658030      -398.8653
   3   1.0000     -14.528446      -395.3391
   4   1.0000     -10.526841      -286.4499
   5   1.0000     -10.520325      -286.2726
   6   1.0000     -10.489918      -285.4452
   7   1.0000     -10.482819      -285.2520
   8   1.0000     -10.459583      -284.6197
   9   1.0000     -10.451081      -284.3884
  10   1.0000     -10.449756      -284.3523
  11   1.0000     -10.449327      -284.3406
  12   1.0000     -10.447561      -284.2926
  13   1.0000     -10.436683      -283.9966
  14   1.0000     -10.431104      -283.8448
  15   1.0000      -1.365433       -37.1553
  16   1.0000      -1.315900       -35.8074
  17   1.0000      -1.274489       -34.6806
  18   1.0000      -1.171354       -31.8742
  19   1.0000      -1.157897       -31.5080
  20   1.0000      -1.109987       -30.2043
  21   1.0000      -1.050396       -28.5827
  22   1.0000      -1.041140       -28.3309
  23   1.0000      -1.011760       -27.5314
  24   1.0000      -0.948628       -25.8135
  25   1.0000      -0.925180       -25.1754
  26   1.0000      -0.894534       -24.3415
  27   1.0000      -0.858302       -23.3556
  28   1.0000      -0.841899       -22.9092
  29   1.0000      -0.832671       -22.6581
  30   1.0000      -0.782620       -21.2962
  31   1.0000      -0.772543       -21.0220
  32   1.0000      -0.760906       -20.7053
  33   1.0000      -0.742491       -20.2042
  34   1.0000      -0.727883       -19.8067
  35   1.0000      -0.725843       -19.7512
  36   1.0000      -0.715838       -19.4790
  37   1.0000      -0.713308       -19.4101
  38   1.0000      -0.697724       -18.9860
  39   1.0000      -0.695729       -18.9317
  40   1.0000      -0.669395       -18.2152
  41   1.0000      -0.663141       -18.0450
  42   1.0000      -0.637711       -17.3530
  43   1.0000      -0.633375       -17.2350
  44   1.0000      -0.625121       -17.0104
  45   1.0000      -0.618457       -16.8291
  46   1.0000      -0.612279       -16.6610
  47   1.0000      -0.600340       -16.3361
  48   1.0000      -0.553468       -15.0606
  49   1.0000      -0.529156       -14.3991
  50   1.0000      -0.511229       -13.9112
  51   1.0000      -0.501465       -13.6455
  52   1.0000      -0.491481       -13.3739
  53   0.0000      -0.243323        -6.6211
  54   0.0000      -0.099910        -2.7187
  55   0.0000      -0.078839        -2.1453
  56   0.0000      -0.062531        -1.7016
  57   0.0000      -0.061799        -1.6816

MULLIKEN ATOMIC CHARGES AND SPIN POPULATIONS
--------------------------------------------
   0 N :   -0.606966    0.012429
   1 C :    0.074628    0.025567
   2 C :    0.317872    0.000406
   3 O :   -0.293714    0.005102
   4 C :   -0.345005   -0.009789
   5 C :   -0.193078    0.376949
   6 C :   -0.081291    0.227329
   7 C :    0.238819   -0.079563
   8 N :   -0.158767    0.094276
   9 C :    0.052842    0.063317
  10 C :   -0.275374    0.231310
  11 C :   -0.032475   -0.033158
  12 C :    0.076516   -0.110099
  13 C :    0.074712    0.208310
  14 O :   -0.372207   -0.000819
  15 H :    0.367108   -0.000030
  16 H :    0.289620   -0.000085
  17 H :    0.276123   -0.000009
  18 H :    0.169674   -0.000864
  19 H :    0.201883    0.008339
  20 H :    0.193922    0.001741
  21 H :    0.169241   -0.006855
  22 H :    0.280468   -0.001782
  23 H :    0.139559   -0.009793
  24 H :    0.128632    0.002416
  25 H :    0.148913    0.004470
  26 H :    0.158345   -0.009115
Sum of atomic charges         :    1.0000000

LOEWDIN ATOMIC CHARGES AND SPIN POPULATIONS
-------------------------------------------
   0 N :   -0.011656    0.014668
   1 C :   -0.222552    0.018691
   2 C :   -0.418000    0.000068
   3 O :    0.088809    0.004058
   4 C :   -0.141126    0.019229
   5 C :   -0.023793    0.290710
   6 C :    0.017463    0.212420
   7 C :   -0.110111   -0.016314
   8 N :    0.244318    0.099819
   9 C :   -0.107454    0.067582
  10 C :   -0.008508    0.153855
  11 C :   -0.039903    0.000761
  12 C :   -0.073553   -0.042119
  13 C :   -0.019410    0.150606
  14 O :    0.142801   -0.000165
  15 H :    0.119051   -0.000022
  16 H :    0.110405    0.000703
  17 H :    0.101077    0.001137
  18 H :    0.157119    0.000373
  19 H :    0.151962    0.004037
  20 H :    0.155201    0.001605
  21 H :    0.156974    0.005739
  22 H :    0.159363    0.004849
  23 H :    0.146712    0.005884
  24 H :    0.144790   -0.000968
  25 H :    0.138824   -0.002898
  26 H :    0.141196    0.005689

  Mayer bond orders larger than 0.100000
B(  0-N ,  1-C ) :   0.8882 B(  0-N ,  6-C ) :  -0.1009 B(  0-N , 16-H ) :   0.8954
B(  0-N , 17-H ) :   0.9184 B(  1-C ,  2-C ) :   0.9169 B(  1-C ,  4-C ) :   0.8044
B(  1-C , 14-O ) :   0.1047 B(  1-C , 18-H ) :   1.0257 B(  2-C ,  3-O ) :   1.9195
B(  2-C , 14-O ) :   1.0704 B(  4-C ,  5-C ) :   1.0545 B(  4-C ,  6-C ) :  -0.2267
B(  4-C ,  7-C ) :  -0.2751 B(  4-C , 19-H ) :   0.9472 B(  4-C , 20-H ) :   1.0474
B(  5-C ,  6-C ) :   1.3200 B(  5-C ,  7-C ) :   1.3909 B(  5-C ,  8-N ) :   0.1555
B(  5-C ,  9-C ) :   0.2827 B(  5-C , 10-C ) :   0.2277 B(  5-C , 19-H ) :   0.1495
B(  6-C ,  7-C ) :   0.1486 B(  6-C ,  8-N ) :   1.4791 B(  6-C ,  9-C ) :   0.2510
B(  6-C , 21-H ) :   0.9936 B(  7-C ,  9-C ) :   1.2077 B(  7-C , 10-C ) :   0.9478
B(  7-C , 12-C ) :   0.1881 B(  7-C , 19-H ) :  -0.1701 B(  7-C , 23-H ) :  -0.1847
B(  8-N ,  9-C ) :   1.1078 B(  8-N , 11-C ) :  -0.1699 B(  8-N , 22-H ) :   0.8887
B(  9-C , 11-C ) :   1.2879 B(  9-C , 24-H ) :  -0.1121 B( 10-C , 12-C ) :   1.1390
B( 10-C , 13-C ) :   0.1300 B( 10-C , 23-H ) :   1.2221 B( 11-C , 12-C ) :   0.1057
B( 11-C , 13-C ) :   1.1345 B( 11-C , 24-H ) :   1.1142 B( 12-C , 13-C ) :   1.1492
B( 12-C , 23-H ) :  -0.1399 B( 12-C , 25-H ) :   1.0407 B( 13-C , 26-H ) :   1.0044
B( 14-O , 15-H ) :   0.8198

Dispersion correction           -0.057746709
FINAL SINGLE POINT ENERGY      -686.658299535518

DIPOLE MOMENT
-------------

Method             : SCF
Type of density    : Electron Density
Multiplicity       :   2
Irrep              :   0
Energy             :  -686.6005528262520556 Eh
Relativity type    :
Basis              : AO
                                X                 Y                 Z
Electronic contribution:      0.279837362       1.444557976       0.091605881
Nuclear contribution   :     -2.166153258      -0.173218567       0.760614444
                        -----------------------------------------
Total Dipole Moment    :     -1.886315896       1.271339409       0.852220325
                        -----------------------------------------
Magnitude (a.u.)       :      2.429150270
Magnitude (Debye)      :      6.174409299

Rotational constants in cm-1:             0.043503             0.011431             0.009778
Rotational constants in MHz :          1304.194877           342.702881           293.142069

                             ****ORCA TERMINATED NORMALLY****
TOTAL RUN TIME: 0 days 0 hours 5 minutes 14 seconds 848 msec
