                         Program Version 6.0.0  -   RELEASE  -
|  1> !UKS wB97X-D4 EPR-III TightSCF
|  2>
|  3> # TrpC Hyperfine hydrogen position
|  4>
|  5> %pal
|  6>    nprocs 24
|  7> end
|  8>
|  9> *xyz 1 2
| 10> N        9.13550788     -16.82025191      -0.68031967
| 11> C        9.67414938     -16.85833920       0.66044269
| 12> C       10.85174920     -15.92279520       0.88042528
| 13> O       11.70122216     -16.13247980       1.71226721
| 14> C       10.12738538     -18.29565365       1.02460621
| 15> C       10.08815075     -18.53783527       2.48684086
| 16> C       11.24418843     -18.60383532       3.32991432
| 17> C        8.97480162     -18.60015251       3.35485720
| 18> N       10.87417430     -18.71606473       4.59240272
| 19> C        9.46416254     -18.71728005       4.67522790
| 20> C        7.58604442     -18.58191279       3.13724799
| 21> C        8.64978419     -18.80755802       5.77171386
| 22> C        6.74668054     -18.67030421       4.23480183
| 23> C        7.26799740     -18.78041569       5.52626417
| 24> O       10.81722745     -14.83722943       0.10940490
| 25> H       11.57943551     -14.27774580       0.32614492
| 26> H        9.16465622     -15.89002451      -1.07641092
| 27> H        8.18241083     -17.15577166      -0.71296050
| 28> H        8.94410562     -16.53138797       1.42046663
| 29> H       11.11852314     -18.49004317       0.61626997
| 30> H        9.42898326     -18.97951435       0.53283155
| 31> H       12.28183192     -18.55287721       3.03186281
| 32> H       11.50505459     -18.77472963       5.37853898
| 33> H        7.18136970     -18.50876390       2.13431505
| 34> H        9.03621818     -18.89579942       6.78024765
| 35> H        5.67260902     -18.65884410       4.09606946
| 36> H        6.58749924     -18.84996534       6.36716644
| 37> *
| 38>
| 39> %eprnmr
| 40>     Nuclei = all N { aiso, adip, aorb }
| 41>     Nuclei = all H { aiso, adip, aorb }
| 42> end
| 43>
| 44>
| 45>                          ****END OF INPUT****

CARTESIAN COORDINATES (ANGSTROEM)
---------------------------------
  N      9.135508  -16.820252   -0.680320
  C      9.674149  -16.858339    0.660443
  C     10.851749  -15.922795    0.880425
  O     11.701222  -16.132480    1.712267
  C     10.127385  -18.295654    1.024606
  C     10.088151  -18.537835    2.486841
  C     11.244188  -18.603835    3.329914
  C      8.974802  -18.600153    3.354857
  N     10.874174  -18.716065    4.592403
  C      9.464163  -18.717280    4.675228
  C      7.586044  -18.581913    3.137248
  C      8.649784  -18.807558    5.771714
  C      6.746681  -18.670304    4.234802
  C      7.267997  -18.780416    5.526264
  O     10.817227  -14.837229    0.109405
  H     11.579436  -14.277746    0.326145
  H      9.164656  -15.890025   -1.076411
  H      8.182411  -17.155772   -0.712960
  H      8.944106  -16.531388    1.420467
  H     11.118523  -18.490043    0.616270
  H      9.428983  -18.979514    0.532832
  H     12.281832  -18.552877    3.031863
  H     11.505055  -18.774730    5.378539
  H      7.181370  -18.508764    2.134315
  H      9.036218  -18.895799    6.780248
  H      5.672609  -18.658844    4.096069
  H      6.587499  -18.849965    6.367166

 Total Charge           Charge          ....    1
 Multiplicity           Mult            ....    2
 Number of Electrons    NEL             ....  107
 Basis Dimension        Dim             ....  732

ORBITAL ENERGIES
----------------
                 SPIN UP ORBITALS
  NO   OCC          E(Eh)            E(eV)
   0   1.0000     -19.392101      -527.6859
   1   1.0000     -19.334484      -526.1181
   2   1.0000     -14.659164      -398.8961
   3   1.0000     -14.518801      -395.0767
   4   1.0000     -10.540515      -286.8220
   5   1.0000     -10.520367      -286.2737
   6   1.0000     -10.490660      -285.4654
   7   1.0000     -10.486244      -285.3452
   8   1.0000     -10.461952      -284.6842
   9   1.0000     -10.453702      -284.4597
  10   1.0000     -10.449244      -284.3384
  11   1.0000     -10.448405      -284.3156
  12   1.0000     -10.447902      -284.3019
  13   1.0000     -10.430812      -283.8368
  14   1.0000     -10.429948      -283.8133
  15   1.0000      -1.377440       -37.4820
  16   1.0000      -1.321618       -35.9631
  17   1.0000      -1.283849       -34.9353
  18   1.0000      -1.167210       -31.7614
  19   1.0000      -1.159556       -31.5531
  20   1.0000      -1.120411       -30.4879
  21   1.0000      -1.052377       -28.6366
  22   1.0000      -1.043307       -28.3898
  23   1.0000      -1.015644       -27.6371
  24   1.0000      -0.952962       -25.9314
  25   1.0000      -0.927245       -25.2316
  26   1.0000      -0.897738       -24.4287
  27   1.0000      -0.874435       -23.7946
  28   1.0000      -0.845962       -23.0198
  29   1.0000      -0.834718       -22.7138
  30   1.0000      -0.783689       -21.3253
  31   1.0000      -0.768857       -20.9217
  32   1.0000      -0.758485       -20.6394
  33   1.0000      -0.750687       -20.4272
  34   1.0000      -0.744382       -20.2557
  35   1.0000      -0.740300       -20.1446
  36   1.0000      -0.720999       -19.6194
  37   1.0000      -0.714490       -19.4423
  38   1.0000      -0.697256       -18.9733
  39   1.0000      -0.692197       -18.8356
  40   1.0000      -0.681064       -18.5327
  41   1.0000      -0.655768       -17.8444
  42   1.0000      -0.646327       -17.5875
  43   1.0000      -0.640922       -17.4404
  44   1.0000      -0.635144       -17.2831
  45   1.0000      -0.628200       -17.0942
  46   1.0000      -0.616700       -16.7813
  47   1.0000      -0.607024       -16.5180
  48   1.0000      -0.564986       -15.3741
  49   1.0000      -0.559294       -15.2192
  50   1.0000      -0.522579       -14.2201
  51   1.0000      -0.501220       -13.6389
  52   1.0000      -0.481110       -13.0917
  53   1.0000      -0.469991       -12.7891
  54   0.0000      -0.127121        -3.4591
  55   0.0000      -0.077202        -2.1008
  56   0.0000      -0.075530        -2.0553
  57   0.0000      -0.066350        -1.8055
  58   0.0000      -0.054008        -1.4696

                 SPIN DOWN ORBITALS
  NO   OCC          E(Eh)            E(eV)
   0   1.0000     -19.392036      -527.6841
   1   1.0000     -19.334058      -526.1065
   2   1.0000     -14.657231      -398.8435
   3   1.0000     -14.518781      -395.0761
   4   1.0000     -10.540564      -286.8233
   5   1.0000     -10.517931      -286.2074
   6   1.0000     -10.489410      -285.4313
   7   1.0000     -10.481694      -285.2214
   8   1.0000     -10.461419      -284.6697
   9   1.0000     -10.451171      -284.3908
  10   1.0000     -10.449256      -284.3387
  11   1.0000     -10.449028      -284.3325
  12   1.0000     -10.446732      -284.2700
  13   1.0000     -10.431216      -283.8478
  14   1.0000     -10.431021      -283.8425
  15   1.0000      -1.377094       -37.4726
  16   1.0000      -1.314967       -35.7821
  17   1.0000      -1.283143       -34.9161
  18   1.0000      -1.165324       -31.7101
  19   1.0000      -1.157149       -31.4876
  20   1.0000      -1.110862       -30.2281
  21   1.0000      -1.049952       -28.5707
  22   1.0000      -1.038915       -28.2703
  23   1.0000      -1.007318       -27.4105
  24   1.0000      -0.951474       -25.8909
  25   1.0000      -0.924535       -25.1579
  26   1.0000      -0.894134       -24.3306
  27   1.0000      -0.869924       -23.6718
  28   1.0000      -0.843996       -22.9663
  29   1.0000      -0.831394       -22.6234
  30   1.0000      -0.781086       -21.2544
  31   1.0000      -0.766651       -20.8616
  32   1.0000      -0.757046       -20.6003
  33   1.0000      -0.746395       -20.3104
  34   1.0000      -0.739923       -20.1343
  35   1.0000      -0.724948       -19.7268
  36   1.0000      -0.719246       -19.5717
  37   1.0000      -0.713179       -19.4066
  38   1.0000      -0.695551       -18.9269
  39   1.0000      -0.689712       -18.7680
  40   1.0000      -0.678530       -18.4637
  41   1.0000      -0.652948       -17.7676
  42   1.0000      -0.643516       -17.5110
  43   1.0000      -0.635795       -17.3009
  44   1.0000      -0.626424       -17.0459
  45   1.0000      -0.618255       -16.8236
  46   1.0000      -0.614535       -16.7223
  47   1.0000      -0.605428       -16.4745
  48   1.0000      -0.562650       -15.3105
  49   1.0000      -0.532294       -14.4845
  50   1.0000      -0.513649       -13.9771
  51   1.0000      -0.498351       -13.5608
  52   1.0000      -0.477341       -12.9891
  53   0.0000      -0.242767        -6.6060
  54   0.0000      -0.099607        -2.7104
  55   0.0000      -0.076617        -2.0849
  56   0.0000      -0.066128        -1.7994
  57   0.0000      -0.061562        -1.6752

MULLIKEN ATOMIC CHARGES AND SPIN POPULATIONS
--------------------------------------------
   0 N :   -0.534581    0.003040
   1 C :    0.240148    0.030155
   2 C :    0.275545   -0.002006
   3 O :   -0.335437    0.010374
   4 C :   -0.592274   -0.005584
   5 C :   -0.102964    0.380428
   6 C :   -0.140913    0.222164
   7 C :    0.227584   -0.086867
   8 N :   -0.131985    0.096306
   9 C :    0.017212    0.070993
  10 C :   -0.156972    0.226367
  11 C :    0.072351   -0.040824
  12 C :    0.048742   -0.110292
  13 C :    0.094631    0.206515
  14 O :   -0.363157    0.001773
  15 H :    0.372678   -0.000228
  16 H :    0.270058    0.000889
  17 H :    0.245199   -0.000155
  18 H :    0.103166   -0.002211
  19 H :    0.194615    0.000672
  20 H :    0.187865    0.018181
  21 H :    0.175077   -0.006312
  22 H :    0.275132   -0.001904
  23 H :    0.123293   -0.009502
  24 H :    0.128296    0.002555
  25 H :    0.149220    0.004447
  26 H :    0.157471   -0.008972
Sum of atomic charges         :    1.0000000

LOEWDIN ATOMIC CHARGES AND SPIN POPULATIONS
-------------------------------------------
   0 N :   -0.014451    0.001943
   1 C :   -0.220932    0.020442
   2 C :   -0.395082    0.000861
   3 O :    0.054785    0.013928
   4 C :   -0.134040    0.023404
   5 C :   -0.022855    0.292422
   6 C :    0.023981    0.209529
   7 C :   -0.112819   -0.018241
   8 N :    0.247439    0.101661
   9 C :   -0.106560    0.068375
  10 C :   -0.014679    0.150833
  11 C :   -0.040147   -0.001734
  12 C :   -0.073698   -0.041975
  13 C :   -0.020856    0.148011
  14 O :    0.164538    0.001731
  15 H :    0.123548    0.000205
  16 H :    0.099406    0.000670
  17 H :    0.091169    0.000072
  18 H :    0.148908    0.000138
  19 H :    0.156254    0.000326
  20 H :    0.154992    0.009637
  21 H :    0.161482    0.005159
  22 H :    0.160163    0.004951
  23 H :    0.144850    0.005984
  24 H :    0.144879   -0.001069
  25 H :    0.138612   -0.002879
  26 H :    0.141114    0.005615

  Mayer bond orders larger than 0.100000
B(  0-N ,  1-C ) :   0.8634 B(  0-N ,  4-C ) :   0.3213 B(  0-N ,  5-C ) :  -0.1475
B(  0-N , 16-H ) :   0.9306 B(  0-N , 17-H ) :   0.9435 B(  1-C ,  2-C ) :   0.8618
B(  1-C ,  4-C ) :   0.6972 B(  1-C ,  5-C ) :   0.1475 B(  1-C , 14-O ) :   0.1134
B(  1-C , 18-H ) :   0.9406 B(  2-C ,  3-O ) :   1.8564 B(  2-C , 14-O ) :   1.1219
B(  3-O ,  4-C ) :   0.1213 B(  3-O ,  7-C ) :  -0.1150 B(  4-C ,  5-C ) :   0.9366
B(  4-C ,  6-C ) :  -0.2163 B(  4-C ,  7-C ) :  -0.1425 B(  4-C , 19-H ) :   1.1692
B(  4-C , 20-H ) :   0.9409 B(  5-C ,  6-C ) :   1.2590 B(  5-C ,  7-C ) :   1.3732
B(  5-C ,  8-N ) :   0.1464 B(  5-C ,  9-C ) :   0.2912 B(  5-C , 10-C ) :   0.2148
B(  5-C , 19-H ) :  -0.1327 B(  5-C , 20-H ) :   0.1263 B(  6-C ,  7-C ) :   0.1666
B(  6-C ,  8-N ) :   1.4788 B(  6-C ,  9-C ) :   0.2618 B(  6-C , 21-H ) :   0.9848
B(  7-C ,  9-C ) :   1.1973 B(  7-C , 10-C ) :   1.0156 B(  7-C , 12-C ) :   0.1478
B(  7-C , 20-H ) :  -0.1552 B(  7-C , 23-H ) :  -0.1796 B(  8-N ,  9-C ) :   1.0475
B(  8-N , 11-C ) :  -0.1173 B(  8-N , 22-H ) :   0.8915 B(  9-C , 11-C ) :   1.4165
B( 10-C , 12-C ) :   1.2538 B( 10-C , 13-C ) :   0.1216 B( 10-C , 23-H ) :   1.2000
B( 11-C , 13-C ) :   1.1911 B( 11-C , 24-H ) :   1.0096 B( 12-C , 13-C ) :   1.1936
B( 12-C , 23-H ) :  -0.1011 B( 12-C , 25-H ) :   1.0329 B( 13-C , 26-H ) :   0.9921
B( 14-O , 15-H ) :   0.8233

Dispersion correction           -0.057954241
FINAL SINGLE POINT ENERGY      -686.655338822285

DIPOLE MOMENT
-------------

Method             : SCF
Type of density    : Electron Density
Multiplicity       :   2
Irrep              :   0
Energy             :  -686.5973845809166960 Eh
Relativity type    :
Basis              : AO
                                X                 Y                 Z
Electronic contribution:      4.050797803       0.275293098       4.082674851
Nuclear contribution   :     -4.224689220      -1.007654988      -2.410615501
                        -----------------------------------------
Total Dipole Moment    :     -0.173891418      -0.732361891       1.672059350
                        -----------------------------------------
Magnitude (a.u.)       :      1.833677898
Magnitude (Debye)      :      4.660838814

Rotational constants in cm-1:             0.038769             0.012739             0.010898
Rotational constants in MHz :          1162.278813           381.895637           326.708274

                             ****ORCA TERMINATED NORMALLY****
TOTAL RUN TIME: 0 days 0 hours 7 minutes 4 seconds 218 msec
